
     Program PWSCF v.7.3.1 starts on 22Aug2024 at 12:30:30 

     This program is part of the open-source Quantum ESPRESSO suite
     for quantum simulation of materials; please cite
         "P. Giannozzi et al., J. Phys.:Condens. Matter 21 395502 (2009);
         "P. Giannozzi et al., J. Phys.:Condens. Matter 29 465901 (2017);
         "P. Giannozzi et al., J. Chem. Phys. 152 154105 (2020);
          URL http://www.quantum-espresso.org", 
     in publications or presentations arising from this work. More details at
     http://www.quantum-espresso.org/quote

     Serial version
     7172 MiB available memory on the printing compute node when the environment starts

     Reading input from silicon.bands.in

     Current dimensions of program PWSCF are:
     Max number of different atomic species (ntypx) = 10
     Max number of k-points (npk) =  40000
     Max angular momentum in pseudopotentials (lmaxx) =  4

     Atomic positions and unit cell read from directory:
     out/silicon.save/



     G-vector sticks info
     --------------------
     sticks:   dense  smooth     PW     G-vecs:    dense   smooth      PW
     Sum         433     433    151                 5961     5961    1139

     Using Slab Decomposition



     bravais-lattice index     =            2
     lattice parameter (alat)  =      10.2000  a.u.
     unit-cell volume          =     265.3020 (a.u.)^3
     number of atoms/cell      =            2
     number of atomic types    =            1
     number of electrons       =         8.00
     number of Kohn-Sham states=            8
     kinetic-energy cutoff     =      30.0000  Ry
     charge density cutoff     =     120.0000  Ry
     Exchange-correlation= PBE
                           (   1   4   3   4   0   0   0)

     celldm(1)=  10.200000  celldm(2)=   0.000000  celldm(3)=   0.000000
     celldm(4)=   0.000000  celldm(5)=   0.000000  celldm(6)=   0.000000

     crystal axes: (cart. coord. in units of alat)
               a(1) = (  -0.500000   0.000000   0.500000 )  
               a(2) = (   0.000000   0.500000   0.500000 )  
               a(3) = (  -0.500000   0.500000   0.000000 )  

     reciprocal axes: (cart. coord. in units 2 pi/alat)
               b(1) = ( -1.000000 -1.000000  1.000000 )  
               b(2) = (  1.000000  1.000000  1.000000 )  
               b(3) = ( -1.000000  1.000000 -1.000000 )  


     PseudoPot. # 1 for Si read from file:
     pseudo/Si.pbe-nl-rrkjus_psl.1.0.0.UPF
     MD5 check sum: 78279d3766ecb5dbdc0623f3e93c9a23
     Pseudo is Ultrasoft + core correction, Zval =  4.0
     Generated using &quot;atomic&quot; code by A. Dal Corso  v.6.3
     Using radial grid of 1141 points,  4 beta functions with: 
                l(1) =   0
                l(2) =   0
                l(3) =   1
                l(4) =   1
     Q(r) pseudized with 0 coefficients 


     atomic species   valence    mass     pseudopotential
     Si                4.00    28.08600     Si( 1.00)

     48 Sym. Ops., with inversion, found (24 have fractional translation)


                                    s                        frac. trans.

      isym =  1     identity                                     

 cryst.   s( 1) = (     1          0          0      )
                  (     0          1          0      )
                  (     0          0          1      )

 cart.    s( 1) = (  1.0000000  0.0000000  0.0000000 )
                  (  0.0000000  1.0000000  0.0000000 )
                  (  0.0000000  0.0000000  1.0000000 )


      isym =  2     180 deg rotation - cart. axis [0,0,1]        

 cryst.   s( 2) = (     0          1         -1      )
                  (     1          0         -1      )
                  (     0          0         -1      )

 cart.    s( 2) = ( -1.0000000  0.0000000  0.0000000 )
                  (  0.0000000 -1.0000000  0.0000000 )
                  (  0.0000000  0.0000000  1.0000000 )


      isym =  3     180 deg rotation - cart. axis [0,1,0]        

 cryst.   s( 3) = (    -1          0          0      )
                  (    -1          0          1      )
                  (    -1          1          0      )

 cart.    s( 3) = ( -1.0000000  0.0000000  0.0000000 )
                  (  0.0000000  1.0000000  0.0000000 )
                  (  0.0000000  0.0000000 -1.0000000 )


      isym =  4     180 deg rotation - cart. axis [1,0,0]        

 cryst.   s( 4) = (     0         -1          1      )
                  (     0         -1          0      )
                  (     1         -1          0      )

 cart.    s( 4) = (  1.0000000  0.0000000  0.0000000 )
                  (  0.0000000 -1.0000000  0.0000000 )
                  (  0.0000000  0.0000000 -1.0000000 )


      isym =  5     180 deg rotation - cart. axis [1,1,0]        

 cryst.   s( 5) = (     0         -1          0      )    f =(  0.2500000 )
                  (    -1          0          0      )       (  0.2500000 )
                  (     0          0         -1      )       (  0.2500000 )

 cart.    s( 5) = (  0.0000000  1.0000000  0.0000000 )    f =( -0.2500000 )
                  (  1.0000000  0.0000000  0.0000000 )       (  0.2500000 )
                  (  0.0000000  0.0000000 -1.0000000 )       (  0.2500000 )


      isym =  6     180 deg rotation - cart. axis [1,-1,0]       

 cryst.   s( 6) = (    -1          0          1      )    f =(  0.2500000 )
                  (     0         -1          1      )       (  0.2500000 )
                  (     0          0          1      )       (  0.2500000 )

 cart.    s( 6) = (  0.0000000 -1.0000000  0.0000000 )    f =( -0.2500000 )
                  ( -1.0000000  0.0000000  0.0000000 )       (  0.2500000 )
                  (  0.0000000  0.0000000 -1.0000000 )       (  0.2500000 )


      isym =  7      90 deg rotation - cart. axis [0,0,-1]       

 cryst.   s( 7) = (     0          1          0      )    f =(  0.2500000 )
                  (     0          1         -1      )       (  0.2500000 )
                  (    -1          1          0      )       (  0.2500000 )

 cart.    s( 7) = (  0.0000000  1.0000000  0.0000000 )    f =( -0.2500000 )
                  ( -1.0000000  0.0000000  0.0000000 )       (  0.2500000 )
                  (  0.0000000  0.0000000  1.0000000 )       (  0.2500000 )


      isym =  8      90 deg rotation - cart. axis [0,0,1]        

 cryst.   s( 8) = (     1          0         -1      )    f =(  0.2500000 )
                  (     1          0          0      )       (  0.2500000 )
                  (     1         -1          0      )       (  0.2500000 )

 cart.    s( 8) = (  0.0000000 -1.0000000  0.0000000 )    f =( -0.2500000 )
                  (  1.0000000  0.0000000  0.0000000 )       (  0.2500000 )
                  (  0.0000000  0.0000000  1.0000000 )       (  0.2500000 )


      isym =  9     180 deg rotation - cart. axis [1,0,1]        

 cryst.   s( 9) = (    -1          0          0      )    f =(  0.2500000 )
                  (     0          0         -1      )       (  0.2500000 )
                  (     0         -1          0      )       (  0.2500000 )

 cart.    s( 9) = (  0.0000000  0.0000000  1.0000000 )    f =( -0.2500000 )
                  (  0.0000000 -1.0000000  0.0000000 )       (  0.2500000 )
                  (  1.0000000  0.0000000  0.0000000 )       (  0.2500000 )


      isym = 10     180 deg rotation - cart. axis [-1,0,1]       

 cryst.   s(10) = (     1          0          0      )    f =(  0.2500000 )
                  (     1         -1          0      )       (  0.2500000 )
                  (     1          0         -1      )       (  0.2500000 )

 cart.    s(10) = (  0.0000000  0.0000000 -1.0000000 )    f =( -0.2500000 )
                  (  0.0000000 -1.0000000  0.0000000 )       (  0.2500000 )
                  ( -1.0000000  0.0000000  0.0000000 )       (  0.2500000 )


      isym = 11      90 deg rotation - cart. axis [0,1,0]        

 cryst.   s(11) = (     0          1         -1      )    f =(  0.2500000 )
                  (    -1          1          0      )       (  0.2500000 )
                  (     0          1          0      )       (  0.2500000 )

 cart.    s(11) = (  0.0000000  0.0000000  1.0000000 )    f =( -0.2500000 )
                  (  0.0000000  1.0000000  0.0000000 )       (  0.2500000 )
                  ( -1.0000000  0.0000000  0.0000000 )       (  0.2500000 )


      isym = 12      90 deg rotation - cart. axis [0,-1,0]       

 cryst.   s(12) = (     0         -1          1      )    f =(  0.2500000 )
                  (     0          0          1      )       (  0.2500000 )
                  (    -1          0          1      )       (  0.2500000 )

 cart.    s(12) = (  0.0000000  0.0000000 -1.0000000 )    f =( -0.2500000 )
                  (  0.0000000  1.0000000  0.0000000 )       (  0.2500000 )
                  (  1.0000000  0.0000000  0.0000000 )       (  0.2500000 )


      isym = 13     180 deg rotation - cart. axis [0,1,1]        

 cryst.   s(13) = (    -1          1          0      )    f =(  0.2500000 )
                  (     0          1          0      )       (  0.2500000 )
                  (     0          1         -1      )       (  0.2500000 )

 cart.    s(13) = ( -1.0000000  0.0000000  0.0000000 )    f =( -0.2500000 )
                  (  0.0000000  0.0000000  1.0000000 )       (  0.2500000 )
                  (  0.0000000  1.0000000  0.0000000 )       (  0.2500000 )


      isym = 14     180 deg rotation - cart. axis [0,1,-1]       

 cryst.   s(14) = (     0          0         -1      )    f =(  0.2500000 )
                  (     0         -1          0      )       (  0.2500000 )
                  (    -1          0          0      )       (  0.2500000 )

 cart.    s(14) = ( -1.0000000  0.0000000  0.0000000 )    f =( -0.2500000 )
                  (  0.0000000  0.0000000 -1.0000000 )       (  0.2500000 )
                  (  0.0000000 -1.0000000  0.0000000 )       (  0.2500000 )


      isym = 15      90 deg rotation - cart. axis [-1,0,0]       

 cryst.   s(15) = (     0          0          1      )    f =(  0.2500000 )
                  (    -1          0          1      )       (  0.2500000 )
                  (     0         -1          1      )       (  0.2500000 )

 cart.    s(15) = (  1.0000000  0.0000000  0.0000000 )    f =( -0.2500000 )
                  (  0.0000000  0.0000000  1.0000000 )       (  0.2500000 )
                  (  0.0000000 -1.0000000  0.0000000 )       (  0.2500000 )


      isym = 16      90 deg rotation - cart. axis [1,0,0]        

 cryst.   s(16) = (     1         -1          0      )    f =(  0.2500000 )
                  (     1          0         -1      )       (  0.2500000 )
                  (     1          0          0      )       (  0.2500000 )

 cart.    s(16) = (  1.0000000  0.0000000  0.0000000 )    f =( -0.2500000 )
                  (  0.0000000  0.0000000 -1.0000000 )       (  0.2500000 )
                  (  0.0000000  1.0000000  0.0000000 )       (  0.2500000 )


      isym = 17     120 deg rotation - cart. axis [-1,-1,-1]     

 cryst.   s(17) = (    -1          0          1      )
                  (    -1          1          0      )
                  (    -1          0          0      )

 cart.    s(17) = (  0.0000000  1.0000000  0.0000000 )
                  (  0.0000000  0.0000000  1.0000000 )
                  (  1.0000000  0.0000000  0.0000000 )


      isym = 18     120 deg rotation - cart. axis [-1,1,1]       

 cryst.   s(18) = (     0          1          0      )
                  (     0          0          1      )
                  (     1          0          0      )

 cart.    s(18) = (  0.0000000 -1.0000000  0.0000000 )
                  (  0.0000000  0.0000000  1.0000000 )
                  ( -1.0000000  0.0000000  0.0000000 )


      isym = 19     120 deg rotation - cart. axis [1,1,-1]       

 cryst.   s(19) = (     1          0         -1      )
                  (     0          0         -1      )
                  (     0          1         -1      )

 cart.    s(19) = (  0.0000000  1.0000000  0.0000000 )
                  (  0.0000000  0.0000000 -1.0000000 )
                  ( -1.0000000  0.0000000  0.0000000 )


      isym = 20     120 deg rotation - cart. axis [1,-1,1]       

 cryst.   s(20) = (     0         -1          0      )
                  (     1         -1          0      )
                  (     0         -1          1      )

 cart.    s(20) = (  0.0000000 -1.0000000  0.0000000 )
                  (  0.0000000  0.0000000 -1.0000000 )
                  (  1.0000000  0.0000000  0.0000000 )


      isym = 21     120 deg rotation - cart. axis [1,1,1]        

 cryst.   s(21) = (     0          0         -1      )
                  (     0          1         -1      )
                  (     1          0         -1      )

 cart.    s(21) = (  0.0000000  0.0000000  1.0000000 )
                  (  1.0000000  0.0000000  0.0000000 )
                  (  0.0000000  1.0000000  0.0000000 )


      isym = 22     120 deg rotation - cart. axis [-1,1,-1]      

 cryst.   s(22) = (    -1          1          0      )
                  (    -1          0          0      )
                  (    -1          0          1      )

 cart.    s(22) = (  0.0000000  0.0000000  1.0000000 )
                  ( -1.0000000  0.0000000  0.0000000 )
                  (  0.0000000 -1.0000000  0.0000000 )


      isym = 23     120 deg rotation - cart. axis [1,-1,-1]      

 cryst.   s(23) = (     0          0          1      )
                  (     1          0          0      )
                  (     0          1          0      )

 cart.    s(23) = (  0.0000000  0.0000000 -1.0000000 )
                  ( -1.0000000  0.0000000  0.0000000 )
                  (  0.0000000  1.0000000  0.0000000 )


      isym = 24     120 deg rotation - cart. axis [-1,-1,1]      

 cryst.   s(24) = (     1         -1          0      )
                  (     0         -1          1      )
                  (     0         -1          0      )

 cart.    s(24) = (  0.0000000  0.0000000 -1.0000000 )
                  (  1.0000000  0.0000000  0.0000000 )
                  (  0.0000000 -1.0000000  0.0000000 )


      isym = 25     inversion                                    

 cryst.   s(25) = (    -1          0          0      )    f =(  0.2500000 )
                  (     0         -1          0      )       (  0.2500000 )
                  (     0          0         -1      )       (  0.2500000 )

 cart.    s(25) = ( -1.0000000  0.0000000  0.0000000 )    f =( -0.2500000 )
                  (  0.0000000 -1.0000000  0.0000000 )       (  0.2500000 )
                  (  0.0000000  0.0000000 -1.0000000 )       (  0.2500000 )


      isym = 26     inv. 180 deg rotation - cart. axis [0,0,1]   

 cryst.   s(26) = (     0         -1          1      )    f =(  0.2500000 )
                  (    -1          0          1      )       (  0.2500000 )
                  (     0          0          1      )       (  0.2500000 )

 cart.    s(26) = (  1.0000000  0.0000000  0.0000000 )    f =( -0.2500000 )
                  (  0.0000000  1.0000000  0.0000000 )       (  0.2500000 )
                  (  0.0000000  0.0000000 -1.0000000 )       (  0.2500000 )


      isym = 27     inv. 180 deg rotation - cart. axis [0,1,0]   

 cryst.   s(27) = (     1          0          0      )    f =(  0.2500000 )
                  (     1          0         -1      )       (  0.2500000 )
                  (     1         -1          0      )       (  0.2500000 )

 cart.    s(27) = (  1.0000000  0.0000000  0.0000000 )    f =( -0.2500000 )
                  (  0.0000000 -1.0000000  0.0000000 )       (  0.2500000 )
                  (  0.0000000  0.0000000  1.0000000 )       (  0.2500000 )


      isym = 28     inv. 180 deg rotation - cart. axis [1,0,0]   

 cryst.   s(28) = (     0          1         -1      )    f =(  0.2500000 )
                  (     0          1          0      )       (  0.2500000 )
                  (    -1          1          0      )       (  0.2500000 )

 cart.    s(28) = ( -1.0000000  0.0000000  0.0000000 )    f =( -0.2500000 )
                  (  0.0000000  1.0000000  0.0000000 )       (  0.2500000 )
                  (  0.0000000  0.0000000  1.0000000 )       (  0.2500000 )


      isym = 29     inv. 180 deg rotation - cart. axis [1,1,0]   

 cryst.   s(29) = (     0          1          0      )
                  (     1          0          0      )
                  (     0          0          1      )

 cart.    s(29) = (  0.0000000 -1.0000000  0.0000000 )
                  ( -1.0000000  0.0000000  0.0000000 )
                  (  0.0000000  0.0000000  1.0000000 )


      isym = 30     inv. 180 deg rotation - cart. axis [1,-1,0]  

 cryst.   s(30) = (     1          0         -1      )
                  (     0          1         -1      )
                  (     0          0         -1      )

 cart.    s(30) = (  0.0000000  1.0000000  0.0000000 )
                  (  1.0000000  0.0000000  0.0000000 )
                  (  0.0000000  0.0000000  1.0000000 )


      isym = 31     inv.  90 deg rotation - cart. axis [0,0,-1]  

 cryst.   s(31) = (     0         -1          0      )
                  (     0         -1          1      )
                  (     1         -1          0      )

 cart.    s(31) = (  0.0000000 -1.0000000  0.0000000 )
                  (  1.0000000  0.0000000  0.0000000 )
                  (  0.0000000  0.0000000 -1.0000000 )


      isym = 32     inv.  90 deg rotation - cart. axis [0,0,1]   

 cryst.   s(32) = (    -1          0          1      )
                  (    -1          0          0      )
                  (    -1          1          0      )

 cart.    s(32) = (  0.0000000  1.0000000  0.0000000 )
                  ( -1.0000000  0.0000000  0.0000000 )
                  (  0.0000000  0.0000000 -1.0000000 )


      isym = 33     inv. 180 deg rotation - cart. axis [1,0,1]   

 cryst.   s(33) = (     1          0          0      )
                  (     0          0          1      )
                  (     0          1          0      )

 cart.    s(33) = (  0.0000000  0.0000000 -1.0000000 )
                  (  0.0000000  1.0000000  0.0000000 )
                  ( -1.0000000  0.0000000  0.0000000 )


      isym = 34     inv. 180 deg rotation - cart. axis [-1,0,1]  

 cryst.   s(34) = (    -1          0          0      )
                  (    -1          1          0      )
                  (    -1          0          1      )

 cart.    s(34) = (  0.0000000  0.0000000  1.0000000 )
                  (  0.0000000  1.0000000  0.0000000 )
                  (  1.0000000  0.0000000  0.0000000 )


      isym = 35     inv.  90 deg rotation - cart. axis [0,1,0]   

 cryst.   s(35) = (     0         -1          1      )
                  (     1         -1          0      )
                  (     0         -1          0      )

 cart.    s(35) = (  0.0000000  0.0000000 -1.0000000 )
                  (  0.0000000 -1.0000000  0.0000000 )
                  (  1.0000000  0.0000000  0.0000000 )


      isym = 36     inv.  90 deg rotation - cart. axis [0,-1,0]  

 cryst.   s(36) = (     0          1         -1      )
                  (     0          0         -1      )
                  (     1          0         -1      )

 cart.    s(36) = (  0.0000000  0.0000000  1.0000000 )
                  (  0.0000000 -1.0000000  0.0000000 )
                  ( -1.0000000  0.0000000  0.0000000 )


      isym = 37     inv. 180 deg rotation - cart. axis [0,1,1]   

 cryst.   s(37) = (     1         -1          0      )
                  (     0         -1          0      )
                  (     0         -1          1      )

 cart.    s(37) = (  1.0000000  0.0000000  0.0000000 )
                  (  0.0000000  0.0000000 -1.0000000 )
                  (  0.0000000 -1.0000000  0.0000000 )


      isym = 38     inv. 180 deg rotation - cart. axis [0,1,-1]  

 cryst.   s(38) = (     0          0          1      )
                  (     0          1          0      )
                  (     1          0          0      )

 cart.    s(38) = (  1.0000000  0.0000000  0.0000000 )
                  (  0.0000000  0.0000000  1.0000000 )
                  (  0.0000000  1.0000000  0.0000000 )


      isym = 39     inv.  90 deg rotation - cart. axis [-1,0,0]  

 cryst.   s(39) = (     0          0         -1      )
                  (     1          0         -1      )
                  (     0          1         -1      )

 cart.    s(39) = ( -1.0000000  0.0000000  0.0000000 )
                  (  0.0000000  0.0000000 -1.0000000 )
                  (  0.0000000  1.0000000  0.0000000 )


      isym = 40     inv.  90 deg rotation - cart. axis [1,0,0]   

 cryst.   s(40) = (    -1          1          0      )
                  (    -1          0          1      )
                  (    -1          0          0      )

 cart.    s(40) = ( -1.0000000  0.0000000  0.0000000 )
                  (  0.0000000  0.0000000  1.0000000 )
                  (  0.0000000 -1.0000000  0.0000000 )


      isym = 41     inv. 120 deg rotation - cart. axis [-1,-1,-1]

 cryst.   s(41) = (     1          0         -1      )    f =(  0.2500000 )
                  (     1         -1          0      )       (  0.2500000 )
                  (     1          0          0      )       (  0.2500000 )

 cart.    s(41) = (  0.0000000 -1.0000000  0.0000000 )    f =( -0.2500000 )
                  (  0.0000000  0.0000000 -1.0000000 )       (  0.2500000 )
                  ( -1.0000000  0.0000000  0.0000000 )       (  0.2500000 )


      isym = 42     inv. 120 deg rotation - cart. axis [-1,1,1]  

 cryst.   s(42) = (     0         -1          0      )    f =(  0.2500000 )
                  (     0          0         -1      )       (  0.2500000 )
                  (    -1          0          0      )       (  0.2500000 )

 cart.    s(42) = (  0.0000000  1.0000000  0.0000000 )    f =( -0.2500000 )
                  (  0.0000000  0.0000000 -1.0000000 )       (  0.2500000 )
                  (  1.0000000  0.0000000  0.0000000 )       (  0.2500000 )


      isym = 43     inv. 120 deg rotation - cart. axis [1,1,-1]  

 cryst.   s(43) = (    -1          0          1      )    f =(  0.2500000 )
                  (     0          0          1      )       (  0.2500000 )
                  (     0         -1          1      )       (  0.2500000 )

 cart.    s(43) = (  0.0000000 -1.0000000  0.0000000 )    f =( -0.2500000 )
                  (  0.0000000  0.0000000  1.0000000 )       (  0.2500000 )
                  (  1.0000000  0.0000000  0.0000000 )       (  0.2500000 )


      isym = 44     inv. 120 deg rotation - cart. axis [1,-1,1]  

 cryst.   s(44) = (     0          1          0      )    f =(  0.2500000 )
                  (    -1          1          0      )       (  0.2500000 )
                  (     0          1         -1      )       (  0.2500000 )

 cart.    s(44) = (  0.0000000  1.0000000  0.0000000 )    f =( -0.2500000 )
                  (  0.0000000  0.0000000  1.0000000 )       (  0.2500000 )
                  ( -1.0000000  0.0000000  0.0000000 )       (  0.2500000 )


      isym = 45     inv. 120 deg rotation - cart. axis [1,1,1]   

 cryst.   s(45) = (     0          0          1      )    f =(  0.2500000 )
                  (     0         -1          1      )       (  0.2500000 )
                  (    -1          0          1      )       (  0.2500000 )

 cart.    s(45) = (  0.0000000  0.0000000 -1.0000000 )    f =( -0.2500000 )
                  ( -1.0000000  0.0000000  0.0000000 )       (  0.2500000 )
                  (  0.0000000 -1.0000000  0.0000000 )       (  0.2500000 )


      isym = 46     inv. 120 deg rotation - cart. axis [-1,1,-1] 

 cryst.   s(46) = (     1         -1          0      )    f =(  0.2500000 )
                  (     1          0          0      )       (  0.2500000 )
                  (     1          0         -1      )       (  0.2500000 )

 cart.    s(46) = (  0.0000000  0.0000000 -1.0000000 )    f =( -0.2500000 )
                  (  1.0000000  0.0000000  0.0000000 )       (  0.2500000 )
                  (  0.0000000  1.0000000  0.0000000 )       (  0.2500000 )


      isym = 47     inv. 120 deg rotation - cart. axis [1,-1,-1] 

 cryst.   s(47) = (     0          0         -1      )    f =(  0.2500000 )
                  (    -1          0          0      )       (  0.2500000 )
                  (     0         -1          0      )       (  0.2500000 )

 cart.    s(47) = (  0.0000000  0.0000000  1.0000000 )    f =( -0.2500000 )
                  (  1.0000000  0.0000000  0.0000000 )       (  0.2500000 )
                  (  0.0000000 -1.0000000  0.0000000 )       (  0.2500000 )


      isym = 48     inv. 120 deg rotation - cart. axis [-1,-1,1] 

 cryst.   s(48) = (    -1          1          0      )    f =(  0.2500000 )
                  (     0          1         -1      )       (  0.2500000 )
                  (     0          1          0      )       (  0.2500000 )

 cart.    s(48) = (  0.0000000  0.0000000  1.0000000 )    f =( -0.2500000 )
                  ( -1.0000000  0.0000000  0.0000000 )       (  0.2500000 )
                  (  0.0000000  1.0000000  0.0000000 )       (  0.2500000 )


     point group O_h (m-3m) 
     there are 10 classes
     the character table:

       E     8C3   3C2   6C4   6C2'  i     8S6   3s_h  6S4   6s_d 
A_1g   1.00  1.00  1.00  1.00  1.00  1.00  1.00  1.00  1.00  1.00
A_2g   1.00  1.00  1.00 -1.00 -1.00  1.00  1.00  1.00 -1.00 -1.00
E_g    2.00 -1.00  2.00  0.00  0.00  2.00 -1.00  2.00  0.00  0.00
T_1g   3.00  0.00 -1.00  1.00 -1.00  3.00  0.00 -1.00  1.00 -1.00
T_2g   3.00  0.00 -1.00 -1.00  1.00  3.00  0.00 -1.00 -1.00  1.00
A_1u   1.00  1.00  1.00  1.00  1.00 -1.00 -1.00 -1.00 -1.00 -1.00
A_2u   1.00  1.00  1.00 -1.00 -1.00 -1.00 -1.00 -1.00  1.00  1.00
E_u    2.00 -1.00  2.00  0.00  0.00 -2.00  1.00 -2.00  0.00  0.00
T_1u   3.00  0.00 -1.00  1.00 -1.00 -3.00  0.00  1.00 -1.00  1.00
T_2u   3.00  0.00 -1.00 -1.00  1.00 -3.00  0.00  1.00  1.00 -1.00

     the symmetry operations in each class and the name of the first element:

     E        1
          identity                                               
     8C3     17   19   20   18   24   21   22   23
          120 deg rotation - cart. axis [-1,-1,-1]               
     3C2      2    4    3
          180 deg rotation - cart. axis [0,0,1]                  
     6C4      7    8   15   16   12   11
           90 deg rotation - cart. axis [0,0,-1]                 
     6C2'     5    6   14   13   10    9
          180 deg rotation - cart. axis [1,1,0]                  
     i       25
          inversion                                              
     8S6     41   43   44   42   48   45   46   47
          inv. 120 deg rotation - cart. axis [-1,-1,-1]          
     3s_h    26   28   27
          inv. 180 deg rotation - cart. axis [0,0,1]             
     6S4     31   32   39   40   36   35
          inv.  90 deg rotation - cart. axis [0,0,-1]            
     6s_d    29   30   38   37   34   33
          inv. 180 deg rotation - cart. axis [1,1,0]             

   Cartesian axes

     site n.     atom                  positions (alat units)
         1        Si     tau(   1) = (   0.0000000   0.0000000   0.0000000  )
         2        Si     tau(   2) = (   0.2500000   0.2500000   0.2500000  )

   Crystallographic axes

     site n.     atom                  positions (cryst. coord.)
         1        Si     tau(   1) = (  0.0000000  0.0000000  0.0000000  )
         2        Si     tau(   2) = ( -0.2500000  0.7500000 -0.2500000  )

     number of k points=   111
                       cart. coord. in units 2pi/alat
        k(    1) = (   0.5000000   0.5000000   0.5000000), wk =   0.0180180
        k(    2) = (   0.4750000   0.4750000   0.4750000), wk =   0.0180180
        k(    3) = (   0.4500000   0.4500000   0.4500000), wk =   0.0180180
        k(    4) = (   0.4250000   0.4250000   0.4250000), wk =   0.0180180
        k(    5) = (   0.4000000   0.4000000   0.4000000), wk =   0.0180180
        k(    6) = (   0.3750000   0.3750000   0.3750000), wk =   0.0180180
        k(    7) = (   0.3500000   0.3500000   0.3500000), wk =   0.0180180
        k(    8) = (   0.3250000   0.3250000   0.3250000), wk =   0.0180180
        k(    9) = (   0.3000000   0.3000000   0.3000000), wk =   0.0180180
        k(   10) = (   0.2750000   0.2750000   0.2750000), wk =   0.0180180
        k(   11) = (   0.2500000   0.2500000   0.2500000), wk =   0.0180180
        k(   12) = (   0.2250000   0.2250000   0.2250000), wk =   0.0180180
        k(   13) = (   0.2000000   0.2000000   0.2000000), wk =   0.0180180
        k(   14) = (   0.1750000   0.1750000   0.1750000), wk =   0.0180180
        k(   15) = (   0.1500000   0.1500000   0.1500000), wk =   0.0180180
        k(   16) = (   0.1250000   0.1250000   0.1250000), wk =   0.0180180
        k(   17) = (   0.1000000   0.1000000   0.1000000), wk =   0.0180180
        k(   18) = (   0.0750000   0.0750000   0.0750000), wk =   0.0180180
        k(   19) = (   0.0500000   0.0500000   0.0500000), wk =   0.0180180
        k(   20) = (   0.0250000   0.0250000   0.0250000), wk =   0.0180180
        k(   21) = (   0.0000000   0.0000000   0.0000000), wk =   0.0180180
        k(   22) = (   0.0000000   0.0000000   0.0333333), wk =   0.0180180
        k(   23) = (   0.0000000   0.0000000   0.0666667), wk =   0.0180180
        k(   24) = (   0.0000000   0.0000000   0.1000000), wk =   0.0180180
        k(   25) = (   0.0000000   0.0000000   0.1333333), wk =   0.0180180
        k(   26) = (   0.0000000   0.0000000   0.1666667), wk =   0.0180180
        k(   27) = (   0.0000000   0.0000000   0.2000000), wk =   0.0180180
        k(   28) = (   0.0000000   0.0000000   0.2333333), wk =   0.0180180
        k(   29) = (   0.0000000   0.0000000   0.2666667), wk =   0.0180180
        k(   30) = (   0.0000000   0.0000000   0.3000000), wk =   0.0180180
        k(   31) = (   0.0000000   0.0000000   0.3333333), wk =   0.0180180
        k(   32) = (   0.0000000   0.0000000   0.3666667), wk =   0.0180180
        k(   33) = (   0.0000000   0.0000000   0.4000000), wk =   0.0180180
        k(   34) = (   0.0000000   0.0000000   0.4333333), wk =   0.0180180
        k(   35) = (   0.0000000   0.0000000   0.4666667), wk =   0.0180180
        k(   36) = (   0.0000000   0.0000000   0.5000000), wk =   0.0180180
        k(   37) = (   0.0000000   0.0000000   0.5333333), wk =   0.0180180
        k(   38) = (   0.0000000   0.0000000   0.5666667), wk =   0.0180180
        k(   39) = (   0.0000000   0.0000000   0.6000000), wk =   0.0180180
        k(   40) = (   0.0000000   0.0000000   0.6333333), wk =   0.0180180
        k(   41) = (   0.0000000   0.0000000   0.6666667), wk =   0.0180180
        k(   42) = (   0.0000000   0.0000000   0.7000000), wk =   0.0180180
        k(   43) = (   0.0000000   0.0000000   0.7333333), wk =   0.0180180
        k(   44) = (   0.0000000   0.0000000   0.7666667), wk =   0.0180180
        k(   45) = (   0.0000000   0.0000000   0.8000000), wk =   0.0180180
        k(   46) = (   0.0000000   0.0000000   0.8333333), wk =   0.0180180
        k(   47) = (   0.0000000   0.0000000   0.8666667), wk =   0.0180180
        k(   48) = (   0.0000000   0.0000000   0.9000000), wk =   0.0180180
        k(   49) = (   0.0000000   0.0000000   0.9333333), wk =   0.0180180
        k(   50) = (   0.0000000   0.0000000   0.9666667), wk =   0.0180180
        k(   51) = (   0.0000000   0.0000000   1.0000000), wk =   0.0180180
        k(   52) = (   0.0000000   0.0333333   1.0000000), wk =   0.0180180
        k(   53) = (   0.0000000   0.0666667   1.0000000), wk =   0.0180180
        k(   54) = (   0.0000000   0.1000000   1.0000000), wk =   0.0180180
        k(   55) = (   0.0000000   0.1333333   1.0000000), wk =   0.0180180
        k(   56) = (   0.0000000   0.1666667   1.0000000), wk =   0.0180180
        k(   57) = (   0.0000000   0.2000000   1.0000000), wk =   0.0180180
        k(   58) = (   0.0000000   0.2333333   1.0000000), wk =   0.0180180
        k(   59) = (   0.0000000   0.2666667   1.0000000), wk =   0.0180180
        k(   60) = (   0.0000000   0.3000000   1.0000000), wk =   0.0180180
        k(   61) = (   0.0000000   0.3333333   1.0000000), wk =   0.0180180
        k(   62) = (   0.0000000   0.3666667   1.0000000), wk =   0.0180180
        k(   63) = (   0.0000000   0.4000000   1.0000000), wk =   0.0180180
        k(   64) = (   0.0000000   0.4333333   1.0000000), wk =   0.0180180
        k(   65) = (   0.0000000   0.4666667   1.0000000), wk =   0.0180180
        k(   66) = (   0.0000000   0.5000000   1.0000000), wk =   0.0180180
        k(   67) = (   0.0000000   0.5333333   1.0000000), wk =   0.0180180
        k(   68) = (   0.0000000   0.5666667   1.0000000), wk =   0.0180180
        k(   69) = (   0.0000000   0.6000000   1.0000000), wk =   0.0180180
        k(   70) = (   0.0000000   0.6333333   1.0000000), wk =   0.0180180
        k(   71) = (   0.0000000   0.6666667   1.0000000), wk =   0.0180180
        k(   72) = (   0.0000000   0.7000000   1.0000000), wk =   0.0180180
        k(   73) = (   0.0000000   0.7333333   1.0000000), wk =   0.0180180
        k(   74) = (   0.0000000   0.7666667   1.0000000), wk =   0.0180180
        k(   75) = (   0.0000000   0.8000000   1.0000000), wk =   0.0180180
        k(   76) = (   0.0000000   0.8333333   1.0000000), wk =   0.0180180
        k(   77) = (   0.0000000   0.8666667   1.0000000), wk =   0.0180180
        k(   78) = (   0.0000000   0.9000000   1.0000000), wk =   0.0180180
        k(   79) = (   0.0000000   0.9333333   1.0000000), wk =   0.0180180
        k(   80) = (   0.0000000   0.9666667   1.0000000), wk =   0.0180180
        k(   81) = (   0.0000000   1.0000000   1.0000000), wk =   0.0180180
        k(   82) = (   0.0000000   0.9666667   0.9666667), wk =   0.0180180
        k(   83) = (   0.0000000   0.9333333   0.9333333), wk =   0.0180180
        k(   84) = (   0.0000000   0.9000000   0.9000000), wk =   0.0180180
        k(   85) = (   0.0000000   0.8666667   0.8666667), wk =   0.0180180
        k(   86) = (   0.0000000   0.8333333   0.8333333), wk =   0.0180180
        k(   87) = (   0.0000000   0.8000000   0.8000000), wk =   0.0180180
        k(   88) = (   0.0000000   0.7666667   0.7666667), wk =   0.0180180
        k(   89) = (   0.0000000   0.7333333   0.7333333), wk =   0.0180180
        k(   90) = (   0.0000000   0.7000000   0.7000000), wk =   0.0180180
        k(   91) = (   0.0000000   0.6666667   0.6666667), wk =   0.0180180
        k(   92) = (   0.0000000   0.6333333   0.6333333), wk =   0.0180180
        k(   93) = (   0.0000000   0.6000000   0.6000000), wk =   0.0180180
        k(   94) = (   0.0000000   0.5666667   0.5666667), wk =   0.0180180
        k(   95) = (   0.0000000   0.5333333   0.5333333), wk =   0.0180180
        k(   96) = (   0.0000000   0.5000000   0.5000000), wk =   0.0180180
        k(   97) = (   0.0000000   0.4666667   0.4666667), wk =   0.0180180
        k(   98) = (   0.0000000   0.4333333   0.4333333), wk =   0.0180180
        k(   99) = (   0.0000000   0.4000000   0.4000000), wk =   0.0180180
        k(  100) = (   0.0000000   0.3666667   0.3666667), wk =   0.0180180
        k(  101) = (   0.0000000   0.3333333   0.3333333), wk =   0.0180180
        k(  102) = (   0.0000000   0.3000000   0.3000000), wk =   0.0180180
        k(  103) = (   0.0000000   0.2666667   0.2666667), wk =   0.0180180
        k(  104) = (   0.0000000   0.2333333   0.2333333), wk =   0.0180180
        k(  105) = (   0.0000000   0.2000000   0.2000000), wk =   0.0180180
        k(  106) = (   0.0000000   0.1666667   0.1666667), wk =   0.0180180
        k(  107) = (   0.0000000   0.1333333   0.1333333), wk =   0.0180180
        k(  108) = (   0.0000000   0.1000000   0.1000000), wk =   0.0180180
        k(  109) = (   0.0000000   0.0666667   0.0666667), wk =   0.0180180
        k(  110) = (   0.0000000   0.0333333   0.0333333), wk =   0.0180180
        k(  111) = (   0.0000000   0.0000000   0.0000000), wk =   0.0180180

                       cryst. coord.
        k(    1) = (   0.0000000   0.5000000   0.0000000), wk =   0.0180180
        k(    2) = (   0.0000000   0.4750000   0.0000000), wk =   0.0180180
        k(    3) = (   0.0000000   0.4500000   0.0000000), wk =   0.0180180
        k(    4) = (   0.0000000   0.4250000   0.0000000), wk =   0.0180180
        k(    5) = (   0.0000000   0.4000000   0.0000000), wk =   0.0180180
        k(    6) = (   0.0000000   0.3750000   0.0000000), wk =   0.0180180
        k(    7) = (   0.0000000   0.3500000   0.0000000), wk =   0.0180180
        k(    8) = (   0.0000000   0.3250000   0.0000000), wk =   0.0180180
        k(    9) = (   0.0000000   0.3000000   0.0000000), wk =   0.0180180
        k(   10) = (   0.0000000   0.2750000   0.0000000), wk =   0.0180180
        k(   11) = (   0.0000000   0.2500000   0.0000000), wk =   0.0180180
        k(   12) = (   0.0000000   0.2250000   0.0000000), wk =   0.0180180
        k(   13) = (   0.0000000   0.2000000   0.0000000), wk =   0.0180180
        k(   14) = (   0.0000000   0.1750000   0.0000000), wk =   0.0180180
        k(   15) = (   0.0000000   0.1500000   0.0000000), wk =   0.0180180
        k(   16) = (   0.0000000   0.1250000   0.0000000), wk =   0.0180180
        k(   17) = (   0.0000000   0.1000000   0.0000000), wk =   0.0180180
        k(   18) = (   0.0000000   0.0750000   0.0000000), wk =   0.0180180
        k(   19) = (   0.0000000   0.0500000   0.0000000), wk =   0.0180180
        k(   20) = (   0.0000000   0.0250000   0.0000000), wk =   0.0180180
        k(   21) = (   0.0000000   0.0000000   0.0000000), wk =   0.0180180
        k(   22) = (   0.0166667   0.0166667   0.0000000), wk =   0.0180180
        k(   23) = (   0.0333333   0.0333333   0.0000000), wk =   0.0180180
        k(   24) = (   0.0500000   0.0500000   0.0000000), wk =   0.0180180
        k(   25) = (   0.0666667   0.0666667   0.0000000), wk =   0.0180180
        k(   26) = (   0.0833333   0.0833333   0.0000000), wk =   0.0180180
        k(   27) = (   0.1000000   0.1000000   0.0000000), wk =   0.0180180
        k(   28) = (   0.1166667   0.1166667   0.0000000), wk =   0.0180180
        k(   29) = (   0.1333333   0.1333333   0.0000000), wk =   0.0180180
        k(   30) = (   0.1500000   0.1500000   0.0000000), wk =   0.0180180
        k(   31) = (   0.1666667   0.1666667   0.0000000), wk =   0.0180180
        k(   32) = (   0.1833333   0.1833333   0.0000000), wk =   0.0180180
        k(   33) = (   0.2000000   0.2000000   0.0000000), wk =   0.0180180
        k(   34) = (   0.2166667   0.2166667   0.0000000), wk =   0.0180180
        k(   35) = (   0.2333333   0.2333333   0.0000000), wk =   0.0180180
        k(   36) = (   0.2500000   0.2500000   0.0000000), wk =   0.0180180
        k(   37) = (   0.2666667   0.2666667   0.0000000), wk =   0.0180180
        k(   38) = (   0.2833333   0.2833333   0.0000000), wk =   0.0180180
        k(   39) = (   0.3000000   0.3000000   0.0000000), wk =   0.0180180
        k(   40) = (   0.3166667   0.3166667   0.0000000), wk =   0.0180180
        k(   41) = (   0.3333333   0.3333333   0.0000000), wk =   0.0180180
        k(   42) = (   0.3500000   0.3500000   0.0000000), wk =   0.0180180
        k(   43) = (   0.3666667   0.3666667   0.0000000), wk =   0.0180180
        k(   44) = (   0.3833333   0.3833333   0.0000000), wk =   0.0180180
        k(   45) = (   0.4000000   0.4000000   0.0000000), wk =   0.0180180
        k(   46) = (   0.4166667   0.4166667   0.0000000), wk =   0.0180180
        k(   47) = (   0.4333333   0.4333333   0.0000000), wk =   0.0180180
        k(   48) = (   0.4500000   0.4500000   0.0000000), wk =   0.0180180
        k(   49) = (   0.4666667   0.4666667   0.0000000), wk =   0.0180180
        k(   50) = (   0.4833333   0.4833333   0.0000000), wk =   0.0180180
        k(   51) = (   0.5000000   0.5000000   0.0000000), wk =   0.0180180
        k(   52) = (   0.5000000   0.5166667   0.0166667), wk =   0.0180180
        k(   53) = (   0.5000000   0.5333333   0.0333333), wk =   0.0180180
        k(   54) = (   0.5000000   0.5500000   0.0500000), wk =   0.0180180
        k(   55) = (   0.5000000   0.5666667   0.0666667), wk =   0.0180180
        k(   56) = (   0.5000000   0.5833333   0.0833333), wk =   0.0180180
        k(   57) = (   0.5000000   0.6000000   0.1000000), wk =   0.0180180
        k(   58) = (   0.5000000   0.6166667   0.1166667), wk =   0.0180180
        k(   59) = (   0.5000000   0.6333333   0.1333333), wk =   0.0180180
        k(   60) = (   0.5000000   0.6500000   0.1500000), wk =   0.0180180
        k(   61) = (   0.5000000   0.6666667   0.1666667), wk =   0.0180180
        k(   62) = (   0.5000000   0.6833333   0.1833333), wk =   0.0180180
        k(   63) = (   0.5000000   0.7000000   0.2000000), wk =   0.0180180
        k(   64) = (   0.5000000   0.7166667   0.2166667), wk =   0.0180180
        k(   65) = (   0.5000000   0.7333333   0.2333333), wk =   0.0180180
        k(   66) = (   0.5000000   0.7500000   0.2500000), wk =   0.0180180
        k(   67) = (   0.5000000   0.7666667   0.2666667), wk =   0.0180180
        k(   68) = (   0.5000000   0.7833333   0.2833333), wk =   0.0180180
        k(   69) = (   0.5000000   0.8000000   0.3000000), wk =   0.0180180
        k(   70) = (   0.5000000   0.8166667   0.3166667), wk =   0.0180180
        k(   71) = (   0.5000000   0.8333333   0.3333333), wk =   0.0180180
        k(   72) = (   0.5000000   0.8500000   0.3500000), wk =   0.0180180
        k(   73) = (   0.5000000   0.8666667   0.3666667), wk =   0.0180180
        k(   74) = (   0.5000000   0.8833333   0.3833333), wk =   0.0180180
        k(   75) = (   0.5000000   0.9000000   0.4000000), wk =   0.0180180
        k(   76) = (   0.5000000   0.9166667   0.4166667), wk =   0.0180180
        k(   77) = (   0.5000000   0.9333333   0.4333333), wk =   0.0180180
        k(   78) = (   0.5000000   0.9500000   0.4500000), wk =   0.0180180
        k(   79) = (   0.5000000   0.9666667   0.4666667), wk =   0.0180180
        k(   80) = (   0.5000000   0.9833333   0.4833333), wk =   0.0180180
        k(   81) = (   0.5000000   1.0000000   0.5000000), wk =   0.0180180
        k(   82) = (   0.4833333   0.9666667   0.4833333), wk =   0.0180180
        k(   83) = (   0.4666667   0.9333333   0.4666667), wk =   0.0180180
        k(   84) = (   0.4500000   0.9000000   0.4500000), wk =   0.0180180
        k(   85) = (   0.4333333   0.8666667   0.4333333), wk =   0.0180180
        k(   86) = (   0.4166667   0.8333333   0.4166667), wk =   0.0180180
        k(   87) = (   0.4000000   0.8000000   0.4000000), wk =   0.0180180
        k(   88) = (   0.3833333   0.7666667   0.3833333), wk =   0.0180180
        k(   89) = (   0.3666667   0.7333333   0.3666667), wk =   0.0180180
        k(   90) = (   0.3500000   0.7000000   0.3500000), wk =   0.0180180
        k(   91) = (   0.3333333   0.6666667   0.3333333), wk =   0.0180180
        k(   92) = (   0.3166667   0.6333333   0.3166667), wk =   0.0180180
        k(   93) = (   0.3000000   0.6000000   0.3000000), wk =   0.0180180
        k(   94) = (   0.2833333   0.5666667   0.2833333), wk =   0.0180180
        k(   95) = (   0.2666667   0.5333333   0.2666667), wk =   0.0180180
        k(   96) = (   0.2500000   0.5000000   0.2500000), wk =   0.0180180
        k(   97) = (   0.2333333   0.4666667   0.2333333), wk =   0.0180180
        k(   98) = (   0.2166667   0.4333333   0.2166667), wk =   0.0180180
        k(   99) = (   0.2000000   0.4000000   0.2000000), wk =   0.0180180
        k(  100) = (   0.1833333   0.3666667   0.1833333), wk =   0.0180180
        k(  101) = (   0.1666667   0.3333333   0.1666667), wk =   0.0180180
        k(  102) = (   0.1500000   0.3000000   0.1500000), wk =   0.0180180
        k(  103) = (   0.1333333   0.2666667   0.1333333), wk =   0.0180180
        k(  104) = (   0.1166667   0.2333333   0.1166667), wk =   0.0180180
        k(  105) = (   0.1000000   0.2000000   0.1000000), wk =   0.0180180
        k(  106) = (   0.0833333   0.1666667   0.0833333), wk =   0.0180180
        k(  107) = (   0.0666667   0.1333333   0.0666667), wk =   0.0180180
        k(  108) = (   0.0500000   0.1000000   0.0500000), wk =   0.0180180
        k(  109) = (   0.0333333   0.0666667   0.0333333), wk =   0.0180180
        k(  110) = (   0.0166667   0.0333333   0.0166667), wk =   0.0180180
        k(  111) = (   0.0000000   0.0000000   0.0000000), wk =   0.0180180

     Dense  grid:     5961 G-vectors     FFT dimensions: (  32,  32,  32)

     Dynamical RAM for                 wfc:       0.09 MB

     Dynamical RAM for     wfc (w. buffer):       0.09 MB

     Dynamical RAM for           str. fact:       0.09 MB

     Dynamical RAM for           local pot:       0.00 MB

     Dynamical RAM for          nlocal pot:       0.18 MB

     Dynamical RAM for                qrad:       0.25 MB

     Dynamical RAM for          rho,v,vnew:       1.02 MB

     Dynamical RAM for           G-vectors:       0.39 MB

     Dynamical RAM for          h,s,v(r/c):       0.01 MB

     Dynamical RAM for          <psi|beta>:       0.00 MB

     Dynamical RAM for                 psi:       0.18 MB

     Dynamical RAM for                hpsi:       0.18 MB

     Dynamical RAM for                spsi:       0.18 MB

     Dynamical RAM for      wfcinit/wfcrot:       0.18 MB

     Dynamical RAM for           addusdens:       4.09 MB

     Estimated static dynamical RAM per process >       3.45 MB

     Estimated max dynamical RAM per process >       7.55 MB

     Check: negative core charge=   -0.000002

     The potential is recalculated from file :
     out/silicon.save/charge-density

     Starting wfcs are    8 randomized atomic wfcs

     Band Structure Calculation
     Davidson diagonalization with overlap

     Computing kpt #:     1  of   111
     total cpu time spent up to now is        0.5 secs

     Computing kpt #:     2  of   111
     total cpu time spent up to now is        0.6 secs

     Computing kpt #:     3  of   111
     total cpu time spent up to now is        0.7 secs

     Computing kpt #:     4  of   111
     total cpu time spent up to now is        0.9 secs

     Computing kpt #:     5  of   111
     total cpu time spent up to now is        1.0 secs

     Computing kpt #:     6  of   111
     total cpu time spent up to now is        1.1 secs

     Computing kpt #:     7  of   111
     total cpu time spent up to now is        1.2 secs

     Computing kpt #:     8  of   111
     total cpu time spent up to now is        1.4 secs

     Computing kpt #:     9  of   111
     total cpu time spent up to now is        1.5 secs

     Computing kpt #:    10  of   111
     total cpu time spent up to now is        1.6 secs

     Computing kpt #:    11  of   111
     total cpu time spent up to now is        1.7 secs

     Computing kpt #:    12  of   111
     total cpu time spent up to now is        1.9 secs

     Computing kpt #:    13  of   111
     total cpu time spent up to now is        2.0 secs

     Computing kpt #:    14  of   111
     total cpu time spent up to now is        2.1 secs

     Computing kpt #:    15  of   111
     total cpu time spent up to now is        2.2 secs

     Computing kpt #:    16  of   111
     total cpu time spent up to now is        2.3 secs

     Computing kpt #:    17  of   111
     total cpu time spent up to now is        2.4 secs

     Computing kpt #:    18  of   111
     total cpu time spent up to now is        2.4 secs

     Computing kpt #:    19  of   111
     total cpu time spent up to now is        2.5 secs

     Computing kpt #:    20  of   111
     total cpu time spent up to now is        2.6 secs

     Computing kpt #:    21  of   111
     total cpu time spent up to now is        2.7 secs

     Computing kpt #:    22  of   111
     total cpu time spent up to now is        2.8 secs

     Computing kpt #:    23  of   111
     total cpu time spent up to now is        2.9 secs

     Computing kpt #:    24  of   111
     total cpu time spent up to now is        2.9 secs

     Computing kpt #:    25  of   111
     total cpu time spent up to now is        3.0 secs

     Computing kpt #:    26  of   111
     total cpu time spent up to now is        3.1 secs

     Computing kpt #:    27  of   111
     total cpu time spent up to now is        3.3 secs

     Computing kpt #:    28  of   111
     total cpu time spent up to now is        3.4 secs

     Computing kpt #:    29  of   111
     total cpu time spent up to now is        3.5 secs

     Computing kpt #:    30  of   111
     total cpu time spent up to now is        3.6 secs

     Computing kpt #:    31  of   111
     total cpu time spent up to now is        3.7 secs

     Computing kpt #:    32  of   111
     total cpu time spent up to now is        3.8 secs

     Computing kpt #:    33  of   111
     total cpu time spent up to now is        3.9 secs

     Computing kpt #:    34  of   111
     total cpu time spent up to now is        4.0 secs

     Computing kpt #:    35  of   111
     total cpu time spent up to now is        4.2 secs

     Computing kpt #:    36  of   111
     total cpu time spent up to now is        4.3 secs

     Computing kpt #:    37  of   111
     total cpu time spent up to now is        4.4 secs

     Computing kpt #:    38  of   111
     total cpu time spent up to now is        4.5 secs

     Computing kpt #:    39  of   111
     total cpu time spent up to now is        4.6 secs

     Computing kpt #:    40  of   111
     total cpu time spent up to now is        4.7 secs

     Computing kpt #:    41  of   111
     total cpu time spent up to now is        4.8 secs

     Computing kpt #:    42  of   111
     total cpu time spent up to now is        4.9 secs

     Computing kpt #:    43  of   111
     total cpu time spent up to now is        5.0 secs

     Computing kpt #:    44  of   111
     total cpu time spent up to now is        5.1 secs

     Computing kpt #:    45  of   111
     total cpu time spent up to now is        5.2 secs

     Computing kpt #:    46  of   111
     total cpu time spent up to now is        5.3 secs

     Computing kpt #:    47  of   111
     total cpu time spent up to now is        5.4 secs

     Computing kpt #:    48  of   111
     total cpu time spent up to now is        5.5 secs

     Computing kpt #:    49  of   111
     total cpu time spent up to now is        5.6 secs

     Computing kpt #:    50  of   111
     total cpu time spent up to now is        5.7 secs

     Computing kpt #:    51  of   111
     total cpu time spent up to now is        5.9 secs

     Computing kpt #:    52  of   111
     total cpu time spent up to now is        6.0 secs

     Computing kpt #:    53  of   111
     total cpu time spent up to now is        6.2 secs

     Computing kpt #:    54  of   111
     total cpu time spent up to now is        6.3 secs

     Computing kpt #:    55  of   111
     total cpu time spent up to now is        6.4 secs

     Computing kpt #:    56  of   111
     total cpu time spent up to now is        6.6 secs

     Computing kpt #:    57  of   111
     total cpu time spent up to now is        6.7 secs

     Computing kpt #:    58  of   111
     total cpu time spent up to now is        6.8 secs

     Computing kpt #:    59  of   111
     total cpu time spent up to now is        6.9 secs

     Computing kpt #:    60  of   111
     total cpu time spent up to now is        7.0 secs

     Computing kpt #:    61  of   111
     total cpu time spent up to now is        7.1 secs

     Computing kpt #:    62  of   111
     total cpu time spent up to now is        7.2 secs

     Computing kpt #:    63  of   111
     total cpu time spent up to now is        7.3 secs

     Computing kpt #:    64  of   111
     total cpu time spent up to now is        7.4 secs

     Computing kpt #:    65  of   111
     total cpu time spent up to now is        7.5 secs

     Computing kpt #:    66  of   111
     total cpu time spent up to now is        7.7 secs

     Computing kpt #:    67  of   111
     total cpu time spent up to now is        7.8 secs

     Computing kpt #:    68  of   111
     total cpu time spent up to now is        7.8 secs

     Computing kpt #:    69  of   111
     total cpu time spent up to now is        8.0 secs

     Computing kpt #:    70  of   111
     total cpu time spent up to now is        8.1 secs

     Computing kpt #:    71  of   111
     total cpu time spent up to now is        8.2 secs

     Computing kpt #:    72  of   111
     total cpu time spent up to now is        8.3 secs

     Computing kpt #:    73  of   111
     total cpu time spent up to now is        8.4 secs

     Computing kpt #:    74  of   111
     total cpu time spent up to now is        8.5 secs

     Computing kpt #:    75  of   111
     total cpu time spent up to now is        8.6 secs

     Computing kpt #:    76  of   111
     total cpu time spent up to now is        8.8 secs

     Computing kpt #:    77  of   111
     total cpu time spent up to now is        8.9 secs

     Computing kpt #:    78  of   111
     total cpu time spent up to now is        9.1 secs

     Computing kpt #:    79  of   111
     total cpu time spent up to now is        9.2 secs

     Computing kpt #:    80  of   111
     total cpu time spent up to now is        9.3 secs

     Computing kpt #:    81  of   111
     total cpu time spent up to now is        9.5 secs

     Computing kpt #:    82  of   111
     total cpu time spent up to now is        9.6 secs

     Computing kpt #:    83  of   111
     total cpu time spent up to now is        9.7 secs

     Computing kpt #:    84  of   111
     total cpu time spent up to now is        9.9 secs

     Computing kpt #:    85  of   111
     total cpu time spent up to now is       10.1 secs

     Computing kpt #:    86  of   111
     total cpu time spent up to now is       10.2 secs

     Computing kpt #:    87  of   111
     total cpu time spent up to now is       10.4 secs

     Computing kpt #:    88  of   111
     total cpu time spent up to now is       10.6 secs

     Computing kpt #:    89  of   111
     total cpu time spent up to now is       10.8 secs

     Computing kpt #:    90  of   111
     total cpu time spent up to now is       10.9 secs

     Computing kpt #:    91  of   111
     total cpu time spent up to now is       11.1 secs

     Computing kpt #:    92  of   111
     total cpu time spent up to now is       11.3 secs

     Computing kpt #:    93  of   111
     total cpu time spent up to now is       11.4 secs

     Computing kpt #:    94  of   111
     total cpu time spent up to now is       11.6 secs

     Computing kpt #:    95  of   111
     total cpu time spent up to now is       11.7 secs

     Computing kpt #:    96  of   111
     total cpu time spent up to now is       11.8 secs

     Computing kpt #:    97  of   111
     total cpu time spent up to now is       11.9 secs

     Computing kpt #:    98  of   111
     total cpu time spent up to now is       12.1 secs

     Computing kpt #:    99  of   111
     total cpu time spent up to now is       12.2 secs

     Computing kpt #:   100  of   111
     total cpu time spent up to now is       12.3 secs

     Computing kpt #:   101  of   111
     total cpu time spent up to now is       12.5 secs

     Computing kpt #:   102  of   111
     total cpu time spent up to now is       12.6 secs

     Computing kpt #:   103  of   111
     total cpu time spent up to now is       12.8 secs

     Computing kpt #:   104  of   111
     total cpu time spent up to now is       12.9 secs

     Computing kpt #:   105  of   111
     total cpu time spent up to now is       13.1 secs

     Computing kpt #:   106  of   111
     total cpu time spent up to now is       13.2 secs

     Computing kpt #:   107  of   111
     total cpu time spent up to now is       13.5 secs

     Computing kpt #:   108  of   111
     total cpu time spent up to now is       13.6 secs

     Computing kpt #:   109  of   111
     total cpu time spent up to now is       13.7 secs

     Computing kpt #:   110  of   111
     total cpu time spent up to now is       13.8 secs

     Computing kpt #:   111  of   111
     total cpu time spent up to now is       14.0 secs

     ethr =  1.25E-08,  avg # of iterations = 25.1

     total cpu time spent up to now is       14.0 secs

     End of band structure calculation

          k = 0.5000 0.5000 0.5000 (   754 PWs)   bands (ev):

    -3.3169  -0.6639   5.1794   5.1794   8.0016   9.7383   9.7383  14.1522

          k = 0.4750 0.4750 0.4750 (   748 PWs)   bands (ev):

    -3.3535  -0.6116   5.1839   5.1839   8.0068   9.7442   9.7442  14.1606

          k = 0.4500 0.4500 0.4500 (   736 PWs)   bands (ev):

    -3.4552  -0.4629   5.1977   5.1977   8.0227   9.7616   9.7616  14.1853

          k = 0.4250 0.4250 0.4250 (   739 PWs)   bands (ev):

    -3.6040  -0.2360   5.2204   5.2204   8.0483   9.7870   9.7870  14.2236

          k = 0.4000 0.4000 0.4000 (   745 PWs)   bands (ev):

    -3.7809   0.0500   5.2520   5.2520   8.0840   9.8197   9.8197  14.2719

          k = 0.3750 0.3750 0.3750 (   748 PWs)   bands (ev):

    -3.9715   0.3805   5.2927   5.2927   8.1290   9.8569   9.8569  14.3203

          k = 0.3500 0.3500 0.3500 (   751 PWs)   bands (ev):

    -4.1661   0.7452   5.3422   5.3422   8.1842   9.8943   9.8943  14.3479

          k = 0.3250 0.3250 0.3250 (   751 PWs)   bands (ev):

    -4.3580   1.1371   5.4004   5.4004   8.2485   9.9267   9.9267  14.3098

          k = 0.3000 0.3000 0.3000 (   748 PWs)   bands (ev):

    -4.5431   1.5513   5.4672   5.4672   8.3216   9.9475   9.9475  14.0407

          k = 0.2750 0.2750 0.2750 (   751 PWs)   bands (ev):

    -4.7185   1.9843   5.5419   5.5419   8.4025   9.9490   9.9490  13.8431

          k = 0.2500 0.2500 0.2500 (   745 PWs)   bands (ev):

    -4.8821   2.4324   5.6241   5.6241   8.4902   9.9250   9.9250  13.4613

          k = 0.2250 0.2250 0.2250 (   733 PWs)   bands (ev):

    -5.0327   2.8932   5.7133   5.7133   8.5832   9.8707   9.8707  13.0409

          k = 0.2000 0.2000 0.2000 (   733 PWs)   bands (ev):

    -5.1691   3.3635   5.8076   5.8076   8.6794   9.7851   9.7851  12.6021

          k = 0.1750 0.1750 0.1750 (   730 PWs)   bands (ev):

    -5.2907   3.8398   5.9056   5.9056   8.7762   9.6730   9.6730  12.1552

          k = 0.1500 0.1500 0.1500 (   736 PWs)   bands (ev):

    -5.3970   4.3175   6.0051   6.0051   8.8688   9.5426   9.5426  11.7076

          k = 0.1250 0.1250 0.1250 (   734 PWs)   bands (ev):

    -5.4874   4.7908   6.1030   6.1030   8.9519   9.4044   9.4044  11.2682

          k = 0.1000 0.1000 0.1000 (   731 PWs)   bands (ev):

    -5.5618   5.2485   6.1955   6.1955   9.0161   9.2698   9.2698  10.8514

          k = 0.0750 0.0750 0.0750 (   731 PWs)   bands (ev):

    -5.6199   5.6745   6.2770   6.2770   9.0501   9.1497   9.1497  10.4810

          k = 0.0500 0.0500 0.0500 (   731 PWs)   bands (ev):

    -5.6614   6.0408   6.3418   6.3418   9.0413   9.0544   9.0544  10.1922

          k = 0.0250 0.0250 0.0250 (   725 PWs)   bands (ev):

    -5.6864   6.3016   6.3840   6.3840   8.9928   8.9928   8.9982  10.0179

          k = 0.0000 0.0000 0.0000 (   725 PWs)   bands (ev):

    -5.6948   6.3986   6.3986   6.3986   8.9715   8.9715   8.9715   9.9624

          k = 0.0000 0.0000 0.0333 (   725 PWs)   bands (ev):

    -5.6898   6.3661   6.3769   6.3769   8.9592   8.9994   8.9994   9.9943

          k = 0.0000 0.0000 0.0667 (   729 PWs)   bands (ev):

    -5.6750   6.2720   6.3142   6.3142   8.9229   9.0801   9.0801  10.0856

          k = 0.0000 0.0000 0.1000 (   729 PWs)   bands (ev):

    -5.6503   6.1253   6.2180   6.2180   8.8645   9.2067   9.2067  10.2254

          k = 0.0000 0.0000 0.1333 (   733 PWs)   bands (ev):

    -5.6158   5.9369   6.0963   6.0963   8.7867   9.3705   9.3705  10.3981

          k = 0.0000 0.0000 0.1667 (   733 PWs)   bands (ev):

    -5.5714   5.7170   5.9575   5.9575   8.6930   9.5636   9.5636  10.5855

          k = 0.0000 0.0000 0.2000 (   733 PWs)   bands (ev):

    -5.5172   5.4739   5.8078   5.8078   8.5868   9.7795   9.7795  10.7643

          k = 0.0000 0.0000 0.2333 (   737 PWs)   bands (ev):

    -5.4532   5.2140   5.6520   5.6520   8.4714  10.0132  10.0132  10.9031

          k = 0.0000 0.0000 0.2667 (   729 PWs)   bands (ev):

    -5.3795   4.9418   5.4938   5.4938   8.3501  10.2620  10.2620  10.9633

          k = 0.0000 0.0000 0.3000 (   729 PWs)   bands (ev):

    -5.2961   4.6603   5.3354   5.3354   8.2252  10.5213  10.5213  10.9182

          k = 0.0000 0.0000 0.3333 (   737 PWs)   bands (ev):

    -5.2031   4.3723   5.1793   5.1793   8.0994  10.7743  10.7888  10.7888

          k = 0.0000 0.0000 0.3667 (   737 PWs)   bands (ev):

    -5.1005   4.0795   5.0268   5.0268   7.9746  10.5662  11.0646  11.0646

          k = 0.0000 0.0000 0.4000 (   725 PWs)   bands (ev):

    -4.9884   3.7830   4.8790   4.8790   7.8526  10.3226  11.3481  11.3481

          k = 0.0000 0.0000 0.4333 (   729 PWs)   bands (ev):

    -4.8669   3.4837   4.7362   4.7362   7.7344  10.0627  11.6356  11.6356

          k = 0.0000 0.0000 0.4667 (   729 PWs)   bands (ev):

    -4.7360   3.1826   4.5999   4.5999   7.6216   9.7986  11.9278  11.9278

          k = 0.0000 0.0000 0.5000 (   729 PWs)   bands (ev):

    -4.5958   2.8802   4.4702   4.4702   7.5152   9.5369  12.2241  12.2241

          k = 0.0000 0.0000 0.5333 (   729 PWs)   bands (ev):

    -4.4466   2.5770   4.3476   4.3476   7.4159   9.2820  12.5239  12.5239

          k = 0.0000 0.0000 0.5667 (   725 PWs)   bands (ev):

    -4.2882   2.2736   4.2324   4.2324   7.3246   9.0367  12.8272  12.8272

          k = 0.0000 0.0000 0.6000 (   725 PWs)   bands (ev):

    -4.1210   1.9704   4.1249   4.1249   7.2419   8.8027  13.1332  13.1332

          k = 0.0000 0.0000 0.6333 (   725 PWs)   bands (ev):

    -3.9450   1.6679   4.0253   4.0253   7.1682   8.5815  13.4418  13.4418

          k = 0.0000 0.0000 0.6667 (   717 PWs)   bands (ev):

    -3.7604   1.3666   3.9339   3.9339   7.1047   8.3745  13.7535  13.7535

          k = 0.0000 0.0000 0.7000 (   733 PWs)   bands (ev):

    -3.5674   1.0667   3.8507   3.8507   7.0504   8.1795  14.0660  14.0660

          k = 0.0000 0.0000 0.7333 (   733 PWs)   bands (ev):

    -3.3660   0.7691   3.7760   3.7760   7.0070   8.0000  14.3817  14.3817

          k = 0.0000 0.0000 0.7667 (   741 PWs)   bands (ev):

    -3.1566   0.4738   3.7098   3.7098   6.9734   7.8339  14.6993  14.6993

          k = 0.0000 0.0000 0.8000 (   749 PWs)   bands (ev):

    -2.9393   0.1816   3.6521   3.6521   6.9521   7.6828  15.0185  15.0185

          k = 0.0000 0.0000 0.8333 (   745 PWs)   bands (ev):

    -2.7143  -0.1071   3.6033   3.6033   6.9424   7.5468  15.3388  15.3388

          k = 0.0000 0.0000 0.8667 (   741 PWs)   bands (ev):

    -2.4819  -0.3919   3.5634   3.5634   6.9447   7.4252  15.6593  15.6593

          k = 0.0000 0.0000 0.9000 (   740 PWs)   bands (ev):

    -2.2424  -0.6724   3.5322   3.5322   6.9593   7.3177  15.9745  15.9745

          k = 0.0000 0.0000 0.9333 (   740 PWs)   bands (ev):

    -1.9960  -0.9482   3.5099   3.5099   6.9862   7.2242  16.2769  16.2769

          k = 0.0000 0.0000 0.9667 (   740 PWs)   bands (ev):

    -1.7431  -1.2188   3.4966   3.4966   7.0258   7.1446  16.5382  16.5382

          k = 0.0000 0.0000 1.0000 (   740 PWs)   bands (ev):

    -1.4839  -1.4839   3.4921   3.4921   7.0786   7.0786  16.6617  16.6617

          k = 0.0000 0.0333 1.0000 (   740 PWs)   bands (ev):

    -1.4822  -1.4822   3.4768   3.4768   7.1062   7.1062  16.6155  16.6155

          k = 0.0000 0.0667 1.0000 (   740 PWs)   bands (ev):

    -1.4771  -1.4771   3.4325   3.4325   7.1875   7.1875  16.4609  16.4609

          k = 0.0000 0.1000 1.0000 (   736 PWs)   bands (ev):

    -1.4688  -1.4688   3.3638   3.3638   7.3188   7.3188  16.1880  16.1880

          k = 0.0000 0.1333 1.0000 (   732 PWs)   bands (ev):

    -1.4576  -1.4576   3.2764   3.2764   7.4936   7.4936  15.8301  15.8301

          k = 0.0000 0.1667 1.0000 (   738 PWs)   bands (ev):

    -1.4440  -1.4440   3.1767   3.1767   7.7050   7.7050  15.4250  15.4250

          k = 0.0000 0.2000 1.0000 (   734 PWs)   bands (ev):

    -1.4282  -1.4282   3.0709   3.0709   7.9487   7.9487  14.9976  14.9976

          k = 0.0000 0.2333 1.0000 (   734 PWs)   bands (ev):

    -1.4110  -1.4110   2.9640   2.9640   8.2190   8.2190  14.5596  14.5596

          k = 0.0000 0.2667 1.0000 (   738 PWs)   bands (ev):

    -1.3931  -1.3931   2.8604   2.8604   8.5120   8.5120  14.1176  14.1176

          k = 0.0000 0.3000 1.0000 (   738 PWs)   bands (ev):

    -1.3752  -1.3752   2.7639   2.7639   8.8243   8.8243  13.6769  13.6769

          k = 0.0000 0.3333 1.0000 (   738 PWs)   bands (ev):

    -1.3581  -1.3581   2.6772   2.6772   9.1528   9.1528  13.2402  13.2402

          k = 0.0000 0.3667 1.0000 (   732 PWs)   bands (ev):

    -1.3426  -1.3426   2.6030   2.6030   9.4944   9.4944  12.8110  12.8110

          k = 0.0000 0.4000 1.0000 (   734 PWs)   bands (ev):

    -1.3297  -1.3297   2.5431   2.5431   9.8442   9.8442  12.3925  12.3925

          k = 0.0000 0.4333 1.0000 (   734 PWs)   bands (ev):

    -1.3198  -1.3198   2.4993   2.4993  10.1934  10.1934  11.9947  11.9947

          k = 0.0000 0.4667 1.0000 (   730 PWs)   bands (ev):

    -1.3137  -1.3137   2.4725   2.4725  10.5134  10.5134  11.6457  11.6457

          k = 0.0000 0.5000 1.0000 (   724 PWs)   bands (ev):

    -1.3116  -1.3116   2.4635   2.4635  10.6797  10.6797  11.4703  11.4703

          k = 0.0000 0.5333 1.0000 (   730 PWs)   bands (ev):

    -1.3137  -1.3137   2.4725   2.4725  10.5134  10.5134  11.6457  11.6457

          k = 0.0000 0.5667 1.0000 (   734 PWs)   bands (ev):

    -1.3198  -1.3198   2.4993   2.4993  10.1934  10.1934  11.9947  11.9947

          k = 0.0000 0.6000 1.0000 (   734 PWs)   bands (ev):

    -1.3297  -1.3297   2.5431   2.5431   9.8442   9.8442  12.3925  12.3925

          k = 0.0000 0.6333 1.0000 (   732 PWs)   bands (ev):

    -1.3426  -1.3426   2.6030   2.6030   9.4944   9.4944  12.8110  12.8110

          k = 0.0000 0.6667 1.0000 (   738 PWs)   bands (ev):

    -1.3581  -1.3581   2.6772   2.6772   9.1528   9.1528  13.2402  13.2402

          k = 0.0000 0.7000 1.0000 (   738 PWs)   bands (ev):

    -1.3752  -1.3752   2.7639   2.7639   8.8243   8.8243  13.6769  13.6769

          k = 0.0000 0.7333 1.0000 (   738 PWs)   bands (ev):

    -1.3931  -1.3931   2.8604   2.8604   8.5120   8.5120  14.1176  14.1176

          k = 0.0000 0.7667 1.0000 (   734 PWs)   bands (ev):

    -1.4110  -1.4110   2.9640   2.9640   8.2190   8.2190  14.5596  14.5596

          k = 0.0000 0.8000 1.0000 (   734 PWs)   bands (ev):

    -1.4282  -1.4282   3.0709   3.0709   7.9487   7.9487  14.9976  14.9976

          k = 0.0000 0.8333 1.0000 (   738 PWs)   bands (ev):

    -1.4440  -1.4440   3.1767   3.1767   7.7050   7.7050  15.4250  15.4250

          k = 0.0000 0.8667 1.0000 (   732 PWs)   bands (ev):

    -1.4576  -1.4576   3.2764   3.2764   7.4936   7.4936  15.8301  15.8301

          k = 0.0000 0.9000 1.0000 (   736 PWs)   bands (ev):

    -1.4688  -1.4688   3.3638   3.3638   7.3188   7.3188  16.1880  16.1880

          k = 0.0000 0.9333 1.0000 (   740 PWs)   bands (ev):

    -1.4771  -1.4771   3.4325   3.4325   7.1875   7.1875  16.4609  16.4609

          k = 0.0000 0.9667 1.0000 (   740 PWs)   bands (ev):

    -1.4822  -1.4822   3.4768   3.4768   7.1062   7.1062  16.6155  16.6155

          k = 0.0000 1.0000 1.0000 (   740 PWs)   bands (ev):

    -1.4839  -1.4839   3.4921   3.4921   7.0786   7.0786  16.6617  16.6617

          k = 0.0000 0.9667 0.9667 (   740 PWs)   bands (ev):

    -1.4877  -1.4732   3.4246   3.5000   7.0877   7.1784  16.5488  16.6038

          k = 0.0000 0.9333 0.9333 (   736 PWs)   bands (ev):

    -1.5002  -1.4413   3.2442   3.5238   7.1152   7.4577  16.2616  16.4424

          k = 0.0000 0.9000 0.9000 (   742 PWs)   bands (ev):

    -1.5238  -1.3882   2.9978   3.5634   7.1609   7.8688  15.8825  16.2044

          k = 0.0000 0.8667 0.8667 (   736 PWs)   bands (ev):

    -1.5626  -1.3138   2.7299   3.6184   7.2245   8.3740  15.4636  15.9176

          k = 0.0000 0.8333 0.8333 (   738 PWs)   bands (ev):

    -1.6221  -1.2182   2.4726   3.6885   7.3057   8.9440  15.0295  15.6019

          k = 0.0000 0.8000 0.8000 (   736 PWs)   bands (ev):

    -1.7080  -1.1016   2.2485   3.7734   7.4041   9.5616  14.5948  15.1755

          k = 0.0000 0.7667 0.7667 (   734 PWs)   bands (ev):

    -1.8253  -0.9639   2.0726   3.8724   7.5191  10.2143  14.1652  14.7296

          k = 0.0000 0.7333 0.7333 (   730 PWs)   bands (ev):

    -1.9762  -0.8052   1.9537   3.9849   7.6504  10.8925  13.7456  14.3034

          k = 0.0000 0.7000 0.7000 (   730 PWs)   bands (ev):

    -2.1597  -0.6257   1.8948   4.1099   7.7958  11.5799  13.3383  13.9076

          k = 0.0000 0.6667 0.6667 (   730 PWs)   bands (ev):

    -2.3713  -0.4256   1.8941   4.2463   7.9545  12.2355  12.9453  13.5802

          k = 0.0000 0.6333 0.6333 (   732 PWs)   bands (ev):

    -2.6044  -0.2049   1.9468   4.3930   8.1248  12.5680  12.6332  13.5420

          k = 0.0000 0.6000 0.6000 (   732 PWs)   bands (ev):

    -2.8517   0.0361   2.0467   4.5483   8.3044  12.2073  12.5002  13.3633

          k = 0.0000 0.5667 0.5667 (   732 PWs)   bands (ev):

    -3.1066   0.2972   2.1875   4.7105   8.4905  11.8640  12.2051  13.0968

          k = 0.0000 0.5333 0.5333 (   740 PWs)   bands (ev):

    -3.3630   0.5782   2.3638   4.8771   8.6789  11.5380  11.8923  12.8544

          k = 0.0000 0.5000 0.5000 (   742 PWs)   bands (ev):

    -3.6163   0.8788   2.5708   5.0462   8.8642  11.2311  11.5857  12.6409

          k = 0.0000 0.4667 0.4667 (   738 PWs)   bands (ev):

    -3.8627   1.1988   2.8044   5.2147   9.0404  10.9428  11.2932  12.4611

          k = 0.0000 0.4333 0.4333 (   734 PWs)   bands (ev):

    -4.0992   1.5375   3.0609   5.3799   9.2000  10.6739  11.0167  12.3199

          k = 0.0000 0.4000 0.4000 (   734 PWs)   bands (ev):

    -4.3238   1.8945   3.3371   5.5385   9.3331  10.4239  10.7564  12.2207

          k = 0.0000 0.3667 0.3667 (   732 PWs)   bands (ev):

    -4.5345   2.2691   3.6299   5.6878   9.4331  10.1933  10.5130  12.1643

          k = 0.0000 0.3333 0.3333 (   740 PWs)   bands (ev):

    -4.7300   2.6604   3.9359   5.8248   9.4957   9.9815  10.2858  12.1425

          k = 0.0000 0.3000 0.3000 (   748 PWs)   bands (ev):

    -4.9093   3.0672   4.2515   5.9474   9.5222   9.7901  10.0752  12.1340

          k = 0.0000 0.2667 0.2667 (   749 PWs)   bands (ev):

    -5.0714   3.4882   4.5727   6.0545   9.5177   9.6188   9.8808  12.0995

          k = 0.0000 0.2333 0.2333 (   741 PWs)   bands (ev):

    -5.2158   3.9211   4.8947   6.1452   9.4673   9.4901   9.7027  11.9819

          k = 0.0000 0.2000 0.2000 (   729 PWs)   bands (ev):

    -5.3418   4.3625   5.2112   6.2199   9.3361   9.4462   9.5394  11.7349

          k = 0.0000 0.1667 0.1667 (   739 PWs)   bands (ev):

    -5.4490   4.8065   5.5139   6.2793   9.2247   9.3895   9.3896  11.3721

          k = 0.0000 0.1333 0.1333 (   735 PWs)   bands (ev):

    -5.5372   5.2449   5.7938   6.3249   9.1336   9.2568   9.3221  10.9557

          k = 0.0000 0.1000 0.1000 (   731 PWs)   bands (ev):

    -5.6060   5.6619   6.0376   6.3585   9.0627   9.1426   9.2380  10.5537

          k = 0.0000 0.0667 0.0667 (   731 PWs)   bands (ev):

    -5.6553   6.0291   6.2300   6.3811   9.0121   9.0520   9.1325  10.2286

          k = 0.0000 0.0333 0.0333 (   725 PWs)   bands (ev):

    -5.6849   6.2971   6.3552   6.3944   8.9817   8.9925   9.0228  10.0277

          k = 0.0000 0.0000 0.0000 (   725 PWs)   bands (ev):

    -5.6948   6.3986   6.3986   6.3986   8.9715   8.9715   8.9715   9.9624

     Writing all to output data dir out/silicon.save/ :
     XML data file, pseudopotentials, collected wavefunctions

     init_run     :      0.22s CPU      0.27s WALL (       1 calls)
     electrons    :     13.17s CPU     13.55s WALL (       1 calls)

     Called by init_run:
     wfcinit      :      0.00s CPU      0.00s WALL (       1 calls)
     wfcinit:atom :      0.01s CPU      0.01s WALL (     111 calls)
     wfcinit:wfcr :      0.60s CPU      0.62s WALL (     111 calls)
     potinit      :      0.02s CPU      0.03s WALL (       1 calls)
     hinit0       :      0.18s CPU      0.21s WALL (       1 calls)

     Called by electrons:
     c_bands      :     13.17s CPU     13.55s WALL (       1 calls)
     v_of_rho     :      0.02s CPU      0.03s WALL (       1 calls)
     v_h          :      0.00s CPU      0.00s WALL (       1 calls)
     v_xc         :      0.02s CPU      0.02s WALL (       1 calls)
     newd         :      0.01s CPU      0.01s WALL (       1 calls)

     Called by c_bands:
     init_us_2    :      0.03s CPU      0.03s WALL (     111 calls)
     cegterg      :     12.42s CPU     12.77s WALL (     194 calls)

     Called by sum_band:

     Called by *egterg:
     cdiaghg      :      0.37s CPU      0.38s WALL (    2901 calls)
     cegterg:over :      0.57s CPU      0.59s WALL (    2790 calls)
     cegterg:upda :      0.28s CPU      0.29s WALL (    2790 calls)
     cegterg:last :      0.83s CPU      0.85s WALL (    2020 calls)
     h_psi        :     10.42s CPU     10.72s WALL (    3095 calls)
     s_psi        :      0.31s CPU      0.32s WALL (    3095 calls)
     g_psi        :      0.06s CPU      0.06s WALL (    2790 calls)

     Called by h_psi:
     h_psi:calbec :      0.37s CPU      0.38s WALL (    3095 calls)
     vloc_psi     :      9.72s CPU     10.00s WALL (    3095 calls)
     add_vuspsi   :      0.29s CPU      0.30s WALL (    3095 calls)

     General routines
     calbec       :      0.37s CPU      0.38s WALL (    3095 calls)
     fft          :      0.00s CPU      0.01s WALL (      12 calls)
     fftw         :      8.25s CPU      8.50s WALL (   34402 calls)
     davcio       :      0.02s CPU      0.02s WALL (     222 calls)


     PWSCF        :     13.52s CPU     14.13s WALL


   This run was terminated on:  12:30:44  22Aug2024            

=------------------------------------------------------------------------------=
   JOB DONE.
=------------------------------------------------------------------------------=
